# vtk DataFile Version 3.0
vtk-format output of a FGL_Array3D
ASCII
DATASET STRUCTURED_POINTS
DIMENSIONS 100 100 1
ORIGIN -31.439 137.885 0
SPACING 0.0041198 0.00844346 1
POINT_DATA 10000
SCALARS scalar float 1
LOOKUP_TABLE default
-0.000264281 -0.000261732 -0.000259182 -0.000256629 -0.000254074 -0.000251517 -0.000248958 -0.000246397 -0.000243834 -0.00024127 -0.000238703 -0.000236135 -0.000233566 -0.000230995 -0.000228422 -0.000225849 -0.000223274 -0.000220699 -0.000218122 -0.000215545 -0.000212967 -0.000210389 -0.00020781 -0.000205232 -0.000202653 -0.000200074 -0.000197496 -0.000194918 -0.000192341 -0.000189765 -0.000187189 -0.000184615 -0.000182042 -0.00017947 -0.0001769 -0.000174332 -0.000171765 -0.000169201 -0.000166639 -0.000164079 -0.000161522 -0.000158968 -0.000156416 -0.000153868 -0.000151322 -0.00014878 -0.000146241 -0.000143705 -0.000141173 -0.000138645 -0.00013612 -0.000133599 -0.000131082 -0.000128569 -0.00012606 -0.000123555 -0.000121054 -0.000118557 -0.000116065 -0.000113576 -0.000111092 -0.000108612 -0.000106136 -0.000103664 -0.000101196 -9.87325e-05 -9.62731e-05 -9.38177e-05 -9.13664e-05 -8.8919e-05 -8.64756e-05 -8.40361e-05 -8.16003e-05 -7.91684e-05 -7.67401e-05 -7.43154e-05 -7.18942e-05 -6.94766e-05 -6.70623e-05 -6.46513e-05 -6.22435e-05 -5.98388e-05 -5.74372e-05 -5.50386e-05 -5.26428e-05 -5.02498e-05 -4.78595e-05 -4.54717e-05 -4.30865e-05 -4.07037e-05 -3.83231e-05 -3.59449e-05 -3.35687e-05 -3.11946e-05 -2.88225e-05 -2.64522e-05 -2.40837e-05 -2.17169e-05 -1.93518e-05 -1.69881e-05 
-0.000262333 -0.000259781 -0.000257228 -0.000254671 -0.000252113 -0.000249552 -0.000246989 -0.000244424 -0.000241857 -0.000239288 -0.000236717 -0.000234144 -0.000231569 -0.000228993 -0.000226415 -0.000223836 -0.000221256 -0.000218674 -0.000216091 -0.000213508 -0.000210924 -0.000208339 -0.000205754 -0.000203168 -0.000200583 -0.000197997 -0.000195412 -0.000192827 -0.000190243 -0.00018766 -0.000185077 -0.000182496 -0.000179916 -0.000177337 -0.00017476 -0.000172185 -0.000169612 -0.000167041 -0.000164473 -0.000161907 -0.000159343 -0.000156783 -0.000154226 -0.000151671 -0.00014912 -0.000146573 -0.000144029 -0.000141488 -0.000138952 -0.000136419 -0.00013389 -0.000131365 -0.000128845 -0.000126328 -0.000123816 -0.000121309 -0.000118805 -0.000116306 -0.000113811 -0.000111321 -0.000108836 -0.000106354 -0.000103877 -0.000101405 -9.89371e-05 -9.64734e-05 -9.40142e-05 -9.15592e-05 -8.91085e-05 -8.6662e-05 -8.42196e-05 -8.17813e-05 -7.9347e-05 -7.69167e-05 -7.44902e-05 -7.20676e-05 -6.96486e-05 -6.72332e-05 -6.48214e-05 -6.2413e-05 -6.00079e-05 -5.76061e-05 -5.52075e-05 -5.28119e-05 -5.04192e-05 -4.80294e-05 -4.56424e-05 -4.32581e-05 -4.08763e-05 -3.84969e-05 -3.61199e-05 -3.37452e-05 -3.13727e-05 -2.90022e-05 -2.66338e-05 -2.42672e-05 -2.19024e-05 -1.95393e-05 -1.71778e-05 -1.48178e-05 
-0.000260397 -0.000257843 -0.000255286 -0.000252727 -0.000250165 -0.0002476 -0.000245033 -0.000242464 -0.000239892 -0.000237318 -0.000234742 -0.000232164 -0.000229585 -0.000227003 -0.000224419 -0.000221834 -0.000219248 -0.00021666 -0.000214071 -0.000211481 -0.00020889 -0.000206299 -0.000203706 -0.000201114 -0.000198521 -0.000195928 -0.000193336 -0.000190744 -0.000188152 -0.000185561 -0.000182971 -0.000180382 -0.000177794 -0.000175208 -0.000172624 -0.000170042 -0.000167461 -0.000164883 -0.000162308 -0.000159735 -0.000157165 -0.000154598 -0.000152035 -0.000149474 -0.000146917 -0.000144364 -0.000141815 -0.000139269 -0.000136728 -0.00013419 -0.000131657 -0.000129129 -0.000126604 -0.000124085 -0.000121569 -0.000119059 -0.000116553 -0.000114051 -0.000111555 -0.000109063 -0.000106576 -0.000104094 -0.000101616 -9.9143e-05 -9.66748e-05 -9.42112e-05 -9.17522e-05 -8.92978e-05 -8.68479e-05 -8.44024e-05 -8.19613e-05 -7.95244e-05 -7.70919e-05 -7.46634e-05 -7.2239e-05 -6.98186e-05 -6.7402e-05 -6.49892e-05 -6.25801e-05 -6.01745e-05 -5.77725e-05 -5.53738e-05 -5.29783e-05 -5.0586e-05 -4.81968e-05 -4.58105e-05 -4.3427e-05 -4.10463e-05 -3.86682e-05 -3.62926e-05 -3.39194e-05 -3.15485e-05 -2.91798e-05 -2.68132e-05 -2.44486e-05 -2.20859e-05 -1.9725e-05 -1.73658e-05 -1.50082e-05 -1.26521e-05 
-0.000258476 -0.000255919 -0.000253359 -0.000250796 -0.00024823 -0.000245662 -0.000243091 -0.000240517 -0.000237941 -0.000235363 -0.000232782 -0.000230198 -0.000227613 -0.000225026 -0.000222436 -0.000219845 -0.000217252 -0.000214658 -0.000212062 -0.000209465 -0.000206867 -0.000204268 -0.000201669 -0.000199069 -0.000196468 -0.000193868 -0.000191267 -0.000188667 -0.000186067 -0.000183468 -0.00018087 -0.000178273 -0.000175678 -0.000173084 -0.000170492 -0.000167901 -0.000165314 -0.000162728 -0.000160145 -0.000157565 -0.000154988 -0.000152414 -0.000149844 -0.000147277 -0.000144714 -0.000142154 -0.000139599 -0.000137048 -0.000134502 -0.000131959 -0.000129422 -0.000126889 -0.000124361 -0.000121837 -0.000119319 -0.000116805 -0.000114296 -0.000111793 -0.000109294 -0.000106801 -0.000104312 -0.000101829 -9.93507e-05 -9.68774e-05 -9.44091e-05 -9.19456e-05 -8.94871e-05 -8.70334e-05 -8.45845e-05 -8.21402e-05 -7.97006e-05 -7.72655e-05 -7.48348e-05 -7.24085e-05 -6.99864e-05 -6.75685e-05 -6.51546e-05 -6.27447e-05 -6.03386e-05 -5.79362e-05 -5.55374e-05 -5.31421e-05 -5.07501e-05 -4.83614e-05 -4.59759e-05 -4.35933e-05 -4.12137e-05 -3.88369e-05 -3.64627e-05 -3.40911e-05 -3.1722e-05 -2.93552e-05 -2.69906e-05 -2.46281e-05 -2.22676e-05 -1.9909e-05 -1.75522e-05 -1.51971e-05 -1.28436e-05 -1.04916e-05 
-0.000256569 -0.000254009 -0.000251446 -0.00024888 -0.00024631 -0.000243738 -0.000241163 -0.000238585 -0.000236005 -0.000233421 -0.000230835 -0.000228246 -0.000225655 -0.000223062 -0.000220467 -0.000217869 -0.00021527 -0.000212668 -0.000210065 -0.000207461 -0.000204856 -0.000202249 -0.000199642 -0.000197034 -0.000194425 -0.000191816 -0.000189207 -0.000186599 -0.000183991 -0.000181383 -0.000178776 -0.000176171 -0.000173567 -0.000170964 -0.000168364 -0.000165765 -0.000163169 -0.000160575 -0.000157984 -0.000155396 -0.000152811 -0.00015023 -0.000147652 -0.000145079 -0.000142509 -0.000139943 -0.000137382 -0.000134825 -0.000132273 -0.000129726 -0.000127183 -0.000124646 -0.000122113 -0.000119586 -0.000117064 -0.000114548 -0.000112036 -0.00010953 -0.00010703 -0.000104535 -0.000102045 -9.95607e-05 -9.70817e-05 -9.46081e-05 -9.21398e-05 -8.96767e-05 -8.72189e-05 -8.47661e-05 -8.23184e-05 -7.98756e-05 -7.74377e-05 -7.50045e-05 -7.25761e-05 -7.01522e-05 -6.77327e-05 -6.53176e-05 -6.29067e-05 -6.04999e-05 -5.80971e-05 -5.56982e-05 -5.33029e-05 -5.09113e-05 -4.85232e-05 -4.61384e-05 -4.37569e-05 -4.13784e-05 -3.90029e-05 -3.66303e-05 -3.42604e-05 -3.1893e-05 -2.95282e-05 -2.71657e-05 -2.48054e-05 -2.24473e-05 -2.00912e-05 -1.7737e-05 -1.53845e-05 -1.30337e-05 -1.06845e-05 -8.33678e-06 
-0.000254677 -0.000252114 -0.000249548 -0.000246979 -0.000244406 -0.00024183 -0.000239251 -0.000236669 -0.000234084 -0.000231495 -0.000228904 -0.00022631 -0.000223713 -0.000221114 -0.000218512 -0.000215907 -0.000213301 -0.000210693 -0.000208082 -0.00020547 -0.000202857 -0.000200242 -0.000197627 -0.00019501 -0.000192393 -0.000189775 -0.000187157 -0.00018454 -0.000181922 -0.000179306 -0.00017669 -0.000174075 -0.000171462 -0.00016885 -0.00016624 -0.000163632 -0.000161027 -0.000158425 -0.000155825 -0.000153229 -0.000150636 -0.000148047 -0.000145461 -0.00014288 -0.000140303 -0.00013773 -0.000135163 -0.0001326 -0.000130042 -0.000127489 -0.000124941 -0.000122399 -0.000119862 -0.000117331 -0.000114806 -0.000112286 -0.000109772 -0.000107263 -0.000104761 -0.000102264 -9.97733e-05 -9.72881e-05 -9.48087e-05 -9.2335e-05 -8.98669e-05 -8.74043e-05 -8.49473e-05 -8.24957e-05 -8.00495e-05 -7.76084e-05 -7.51725e-05 -7.27417e-05 -7.03157e-05 -6.78945e-05 -6.5478e-05 -6.30661e-05 -6.06585e-05 -5.82552e-05 -5.5856e-05 -5.34609e-05 -5.10696e-05 -4.8682e-05 -4.6298e-05 -4.39175e-05 -4.15402e-05 -3.91662e-05 -3.67951e-05 -3.4427e-05 -3.20616e-05 -2.96988e-05 -2.73386e-05 -2.49807e-05 -2.26251e-05 -2.02715e-05 -1.792e-05 -1.55704e-05 -1.32225e-05 -1.08763e-05 -8.53157e-06 -6.18831e-06 
-0.000252802 -0.000250237 -0.000247668 -0.000245095 -0.000242519 -0.00023994 -0.000237356 -0.00023477 -0.00023218 -0.000229586 -0.00022699 -0.00022439 -0.000221787 -0.000219181 -0.000216573 -0.000213962 -0.000211348 -0.000208732 -0.000206114 -0.000203494 -0.000200872 -0.000198249 -0.000195624 -0.000192999 -0.000190372 -0.000187745 -0.000185118 -0.000182491 -0.000179863 -0.000177237 -0.000174611 -0.000171986 -0.000169363 -0.000166741 -0.000164122 -0.000161504 -0.000158889 -0.000156277 -0.000153669 -0.000151063 -0.000148461 -0.000145863 -0.00014327 -0.00014068 -0.000138096 -0.000135516 -0.000132941 -0.000130371 -0.000127807 -0.000125249 -0.000122696 -0.000120148 -0.000117607 -0.000115072 -0.000112543 -0.00011002 -0.000107503 -0.000104992 -0.000102488 -9.99893e-05 -9.74972e-05 -9.50113e-05 -9.25315e-05 -9.00578e-05 -8.75901e-05 -8.51284e-05 -8.26725e-05 -8.02223e-05 -7.77778e-05 -7.53389e-05 -7.29053e-05 -7.0477e-05 -6.80539e-05 -6.56358e-05 -6.32226e-05 -6.08142e-05 -5.84103e-05 -5.60109e-05 -5.36157e-05 -5.12247e-05 -4.88377e-05 -4.64545e-05 -4.40751e-05 -4.16991e-05 -3.93265e-05 -3.69572e-05 -3.45909e-05 -3.22276e-05 -2.9867e-05 -2.75092e-05 -2.51538e-05 -2.28008e-05 -2.04501e-05 -1.81014e-05 -1.57548e-05 -1.34099e-05 -1.10669e-05 -8.72541e-06 -6.38545e-06 -4.04687e-06 
-0.000250944 -0.000248376 -0.000245805 -0.000243229 -0.00024065 -0.000238067 -0.00023548 -0.000232889 -0.000230294 -0.000227695 -0.000225093 -0.000222488 -0.000219879 -0.000217267 -0.000214651 -0.000212033 -0.000209412 -0.000206788 -0.000204162 -0.000201533 -0.000198903 -0.000196271 -0.000193637 -0.000191001 -0.000188365 -0.000185728 -0.00018309 -0.000180453 -0.000177815 -0.000175178 -0.000172541 -0.000169906 -0.000167272 -0.000164639 -0.000162009 -0.000159381 -0.000156756 -0.000154134 -0.000151515 -0.000148899 -0.000146288 -0.000143681 -0.000141078 -0.00013848 -0.000135887 -0.000133299 -0.000130717 -0.00012814 -0.00012557 -0.000123005 -0.000120446 -0.000117894 -0.000115347 -0.000112808 -0.000110275 -0.000107748 -0.000105229 -0.000102716 -0.000100209 -9.77095e-05 -9.52164e-05 -9.27299e-05 -9.025e-05 -8.77765e-05 -8.53095e-05 -8.28488e-05 -8.03943e-05 -7.79459e-05 -7.55035e-05 -7.3067e-05 -7.06361e-05 -6.82108e-05 -6.5791e-05 -6.33764e-05 -6.09669e-05 -5.85623e-05 -5.61625e-05 -5.37674e-05 -5.13767e-05 -4.89902e-05 -4.66079e-05 -4.42295e-05 -4.18549e-05 -3.94839e-05 -3.71164e-05 -3.47521e-05 -3.2391e-05 -3.00328e-05 -2.76774e-05 -2.53247e-05 -2.29746e-05 -2.06268e-05 -1.82812e-05 -1.59377e-05 -1.35961e-05 -1.12564e-05 -8.91839e-06 -6.58192e-06 -4.2469e-06 -1.9132e-06 
-0.000249104 -0.000246535 -0.000243961 -0.000241383 -0.0002388 -0.000236213 -0.000233622 -0.000231027 -0.000228428 -0.000225824 -0.000223217 -0.000220605 -0.00021799 -0.000215371 -0.000212749 -0.000210123 -0.000207494 -0.000204862 -0.000202228 -0.00019959 -0.00019695 -0.000194308 -0.000191664 -0.000189019 -0.000186372 -0.000183724 -0.000181076 -0.000178427 -0.000175778 -0.000173129 -0.000170481 -0.000167834 -0.000165188 -0.000162544 -0.000159903 -0.000157263 -0.000154627 -0.000151993 -0.000149364 -0.000146738 -0.000144116 -0.000141499 -0.000138886 -0.000136279 -0.000133677 -0.000131081 -0.00012849 -0.000125906 -0.000123328 -0.000120757 -0.000118192 -0.000115634 -0.000113083 -0.000110539 -0.000108002 -0.000105472 -0.000102949 -0.000100434 -9.79257e-05 -9.54246e-05 -9.29306e-05 -9.04437e-05 -8.79639e-05 -8.5491e-05 -8.30249e-05 -8.05656e-05 -7.81129e-05 -7.56666e-05 -7.32267e-05 -7.07929e-05 -6.83652e-05 -6.59433e-05 -6.35271e-05 -6.11165e-05 -5.87111e-05 -5.63109e-05 -5.39157e-05 -5.15253e-05 -4.91394e-05 -4.6758e-05 -4.43808e-05 -4.20076e-05 -3.96383e-05 -3.72726e-05 -3.49105e-05 -3.25517e-05 -3.0196e-05 -2.78434e-05 -2.54935e-05 -2.31464e-05 -2.08017e-05 -1.84594e-05 -1.61192e-05 -1.37812e-05 -1.1445e-05 -9.11061e-06 -6.77785e-06 -4.44661e-06 -2.11674e-06 2.1187e-07 
-0.000247285 -0.000244713 -0.000242137 -0.000239556 -0.000236971 -0.000234381 -0.000231786 -0.000229187 -0.000226583 -0.000223974 -0.000221361 -0.000218744 -0.000216123 -0.000213497 -0.000210868 -0.000208234 -0.000205597 -0.000202957 -0.000200313 -0.000197666 -0.000195016 -0.000192364 -0.00018971 -0.000187053 -0.000184395 -0.000181736 -0.000179076 -0.000176415 -0.000173754 -0.000171093 -0.000168432 -0.000165773 -0.000163114 -0.000160458 -0.000157803 -0.000155152 -0.000152503 -0.000149857 -0.000147216 -0.000144578 -0.000141945 -0.000139317 -0.000136694 -0.000134077 -0.000131465 -0.00012886 -0.000126261 -0.000123669 -0.000121083 -0.000118505 -0.000115933 -0.00011337 -0.000110813 -0.000108264 -0.000105723 -0.00010319 -0.000100664 -9.81466e-05 -9.56366e-05 -9.31343e-05 -9.06396e-05 -8.81526e-05 -8.56731e-05 -8.32011e-05 -8.07363e-05 -7.82787e-05 -7.58281e-05 -7.33844e-05 -7.09474e-05 -6.8517e-05 -6.60929e-05 -6.36749e-05 -6.12629e-05 -5.88566e-05 -5.64559e-05 -5.40606e-05 -5.16704e-05 -4.92851e-05 -4.69046e-05 -4.45287e-05 -4.2157e-05 -3.97895e-05 -3.74259e-05 -3.5066e-05 -3.27097e-05 -3.03568e-05 -2.8007e-05 -2.56602e-05 -2.33162e-05 -2.09749e-05 -1.8636e-05 -1.62995e-05 -1.39651e-05 -1.16328e-05 -9.30223e-06 -6.97342e-06 -4.64618e-06 -2.32037e-06 4.14156e-09 2.32747e-06 
-0.000245485 -0.000242912 -0.000240335 -0.000237752 -0.000235163 -0.00023257 -0.000229972 -0.000227369 -0.00022476 -0.000222147 -0.000219529 -0.000216906 -0.000214278 -0.000211646 -0.000209009 -0.000206367 -0.000203722 -0.000201073 -0.000198419 -0.000195763 -0.000193103 -0.00019044 -0.000187774 -0.000185106 -0.000182436 -0.000179765 -0.000177092 -0.000174418 -0.000171744 -0.000169069 -0.000166395 -0.000163722 -0.00016105 -0.00015838 -0.000155712 -0.000153047 -0.000150385 -0.000147726 -0.000145072 -0.000142422 -0.000139776 -0.000137136 -0.000134502 -0.000131874 -0.000129252 -0.000126636 -0.000124028 -0.000121427 -0.000118833 -0.000116248 -0.000113669 -0.000111099 -0.000108538 -0.000105984 -0.000103439 -0.000100902 -9.83734e-05 -9.58533e-05 -9.33416e-05 -9.08383e-05 -8.83432e-05 -8.58564e-05 -8.33776e-05 -8.09067e-05 -7.84437e-05 -7.59883e-05 -7.35403e-05 -7.10997e-05 -6.86661e-05 -6.62394e-05 -6.38195e-05 -6.14059e-05 -5.89986e-05 -5.65974e-05 -5.42019e-05 -5.18119e-05 -4.94273e-05 -4.70478e-05 -4.46731e-05 -4.23031e-05 -3.99375e-05 -3.75761e-05 -3.52187e-05 -3.28651e-05 -3.0515e-05 -2.81684e-05 -2.58248e-05 -2.34843e-05 -2.11465e-05 -1.88114e-05 -1.64787e-05 -1.41482e-05 -1.18199e-05 -9.49346e-06 -7.16883e-06 -4.84583e-06 -2.52433e-06 -2.04164e-07 2.11479e-06 4.43266e-06 
-0.000243708 -0.000241134 -0.000238555 -0.00023597 -0.000233379 -0.000230784 -0.000228182 -0.000225575 -0.000222963 -0.000220345 -0.000217721 -0.000215092 -0.000212458 -0.000209819 -0.000207174 -0.000204525 -0.000201871 -0.000199213 -0.00019655 -0.000193883 -0.000191212 -0.000188538 -0.00018586 -0.00018318 -0.000180498 -0.000177813 -0.000175126 -0.000172438 -0.00016975 -0.000167061 -0.000164373 -0.000161685 -0.000158998 -0.000156313 -0.00015363 -0.00015095 -0.000148273 -0.0001456 -0.000142932 -0.000140268 -0.000137609 -0.000134956 -0.000132309 -0.000129669 -0.000127036 -0.00012441 -0.000121792 -0.000119181 -0.000116579 -0.000113985 -0.0001114 -0.000108823 -0.000106256 -0.000103697 -0.000101148 -9.86071e-05 -9.60758e-05 -9.35536e-05 -9.10405e-05 -8.85364e-05 -8.60412e-05 -8.35548e-05 -8.10771e-05 -7.86079e-05 -7.6147e-05 -7.36943e-05 -7.12496e-05 -6.88126e-05 -6.6383e-05 -6.39608e-05 -6.15456e-05 -5.91371e-05 -5.67351e-05 -5.43394e-05 -5.19498e-05 -4.95658e-05 -4.71873e-05 -4.48141e-05 -4.24459e-05 -4.00824e-05 -3.77234e-05 -3.53686e-05 -3.30179e-05 -3.06709e-05 -2.83275e-05 -2.59875e-05 -2.36506e-05 -2.13167e-05 -1.89855e-05 -1.66569e-05 -1.43306e-05 -1.20066e-05 -9.68455e-06 -7.36437e-06 -5.04588e-06 -2.72893e-06 -4.13369e-07 1.90095e-06 4.21416e-06 6.5264e-06 
-0.000241953 -0.000239379 -0.000236799 -0.000234213 -0.00023162 -0.000229022 -0.000226418 -0.000223808 -0.000221191 -0.000218569 -0.00021594 -0.000213306 -0.000210665 -0.000208019 -0.000205367 -0.00020271 -0.000200047 -0.000197379 -0.000194706 -0.000192029 -0.000189347 -0.000186661 -0.000183971 -0.000181277 -0.000178581 -0.000175882 -0.000173181 -0.000170478 -0.000167774 -0.00016507 -0.000162365 -0.000159661 -0.000156958 -0.000154257 -0.000151558 -0.000148862 -0.000146169 -0.00014348 -0.000140796 -0.000138117 -0.000135444 -0.000132777 -0.000130116 -0.000127463 -0.000124818 -0.00012218 -0.000119551 -0.000116931 -0.000114319 -0.000111717 -0.000109124 -0.00010654 -0.000103967 -0.000101403 -9.88492e-05 -9.63052e-05 -9.37712e-05 -9.12471e-05 -8.87327e-05 -8.62282e-05 -8.37333e-05 -8.12478e-05 -7.87717e-05 -7.63047e-05 -7.38466e-05 -7.13972e-05 -6.89563e-05 -6.65236e-05 -6.40987e-05 -6.16816e-05 -5.92718e-05 -5.68691e-05 -5.44731e-05 -5.20837e-05 -4.97005e-05 -4.73232e-05 -4.49515e-05 -4.25852e-05 -4.0224e-05 -3.78675e-05 -3.55156e-05 -3.3168e-05 -3.08245e-05 -2.84847e-05 -2.61484e-05 -2.38155e-05 -2.14857e-05 -1.91587e-05 -1.68345e-05 -1.45127e-05 -1.21932e-05 -9.87584e-06 -7.56038e-06 -5.24667e-06 -2.93456e-06 -6.23867e-07 1.68555e-06 3.99384e-06 6.30114e-06 8.6076e-06 
-0.000240223 -0.000237649 -0.000235068 -0.000232481 -0.000229888 -0.000227288 -0.000224681 -0.000222068 -0.000219448 -0.000216822 -0.000214188 -0.000211549 -0.000208902 -0.000206249 -0.00020359 -0.000200924 -0.000198253 -0.000195575 -0.000192892 -0.000190203 -0.000187509 -0.000184811 -0.000182108 -0.0001794 -0.000176689 -0.000173975 -0.000171259 -0.00016854 -0.000165819 -0.000163098 -0.000160376 -0.000157654 -0.000154933 -0.000152214 -0.000149497 -0.000146783 -0.000144073 -0.000141367 -0.000138665 -0.00013597 -0.000133281 -0.000130598 -0.000127923 -0.000125256 -0.000122597 -0.000119947 -0.000117306 -0.000114675 -0.000112053 -0.000109442 -0.000106841 -0.00010425 -0.000101671 -9.91015e-05 -9.65432e-05 -9.39958e-05 -9.14591e-05 -8.89333e-05 -8.64181e-05 -8.39135e-05 -8.14193e-05 -7.89353e-05 -7.64613e-05 -7.39972e-05 -7.15426e-05 -6.90972e-05 -6.66609e-05 -6.42332e-05 -6.18139e-05 -5.94026e-05 -5.6999e-05 -5.46028e-05 -5.22137e-05 -4.98313e-05 -4.74553e-05 -4.50853e-05 -4.27211e-05 -4.03624e-05 -3.80088e-05 -3.566e-05 -3.33158e-05 -3.09759e-05 -2.864e-05 -2.63078e-05 -2.39791e-05 -2.16537e-05 -1.93313e-05 -1.70118e-05 -1.46948e-05 -1.23802e-05 -1.00677e-05 -7.75731e-06 -5.44868e-06 -3.14168e-06 -8.36145e-07 1.46809e-06 3.77119e-06 6.07329e-06 8.37454e-06 1.06751e-05 
-0.000238518 -0.000235944 -0.000233364 -0.000230777 -0.000228183 -0.000225582 -0.000222974 -0.000220358 -0.000217736 -0.000215105 -0.000212468 -0.000209823 -0.000207171 -0.000204512 -0.000201845 -0.000199171 -0.000196491 -0.000193803 -0.00019111 -0.000188409 -0.000185703 -0.000182992 -0.000180275 -0.000177553 -0.000174826 -0.000172096 -0.000169362 -0.000166626 -0.000163887 -0.000161147 -0.000158406 -0.000155665 -0.000152925 -0.000150186 -0.000147449 -0.000144716 -0.000141986 -0.000139261 -0.000136541 -0.000133827 -0.00013112 -0.00012842 -0.000125729 -0.000123046 -0.000120373 -0.000117709 -0.000115055 -0.000112412 -0.00010978 -0.00010716 -0.00010455 -0.000101952 -9.93659e-05 -9.67914e-05 -9.42288e-05 -9.1678e-05 -8.91391e-05 -8.66118e-05 -8.40962e-05 -8.1592e-05 -7.90991e-05 -7.66173e-05 -7.41462e-05 -7.16857e-05 -6.92353e-05 -6.67949e-05 -6.4364e-05 -6.19422e-05 -5.95293e-05 -5.71248e-05 -5.47283e-05 -5.23395e-05 -4.9958e-05 -4.75835e-05 -4.52154e-05 -4.28536e-05 -4.04976e-05 -3.81472e-05 -3.58018e-05 -3.34614e-05 -3.11254e-05 -2.87937e-05 -2.6466e-05 -2.41419e-05 -2.18213e-05 -1.95038e-05 -1.71892e-05 -1.48774e-05 -1.2568e-05 -1.02608e-05 -7.95571e-06 -5.65247e-06 -3.35089e-06 -1.0508e-06 1.24798e-06 3.5456e-06 5.84222e-06 8.13801e-06 1.04331e-05 1.27276e-05 
-0.000236839 -0.000234267 -0.000231688 -0.000229102 -0.000226508 -0.000223907 -0.000221298 -0.000218681 -0.000216056 -0.000213423 -0.000210781 -0.000208132 -0.000205475 -0.000202809 -0.000200136 -0.000197454 -0.000194765 -0.000192067 -0.000189363 -0.000186651 -0.000183932 -0.000181207 -0.000178475 -0.000175738 -0.000172995 -0.000170248 -0.000167496 -0.000164741 -0.000161982 -0.000159222 -0.00015646 -0.000153698 -0.000150936 -0.000148175 -0.000145417 -0.000142661 -0.00013991 -0.000137163 -0.000134422 -0.000131688 -0.000128961 -0.000126243 -0.000123533 -0.000120834 -0.000118145 -0.000115466 -0.000112799 -0.000110143 -0.0001075 -0.000104869 -0.000102251 -9.9645e-05 -9.70522e-05 -9.44723e-05 -9.19054e-05 -8.93515e-05 -8.68105e-05 -8.42823e-05 -8.17667e-05 -7.92636e-05 -7.67727e-05 -7.42938e-05 -7.18265e-05 -6.93705e-05 -6.69254e-05 -6.44908e-05 -6.20664e-05 -5.96516e-05 -5.72461e-05 -5.48494e-05 -5.24611e-05 -5.00807e-05 -4.77077e-05 -4.53419e-05 -4.29828e-05 -4.06299e-05 -3.82829e-05 -3.59414e-05 -3.3605e-05 -3.12735e-05 -2.89464e-05 -2.66235e-05 -2.43044e-05 -2.19889e-05 -1.96767e-05 -1.73675e-05 -1.50611e-05 -1.27573e-05 -1.04557e-05 -8.1563e-06 -5.85875e-06 -3.5629e-06 -1.26855e-06 1.02447e-06 3.31633e-06 5.60721e-06 7.89725e-06 1.01866e-05 1.24755e-05 1.47639e-05 
-0.000235187 -0.000232618 -0.000230042 -0.000227457 -0.000224865 -0.000222264 -0.000219655 -0.000217037 -0.000214411 -0.000211775 -0.000209131 -0.000206478 -0.000203816 -0.000201145 -0.000198465 -0.000195776 -0.000193078 -0.000190371 -0.000187656 -0.000184932 -0.000182201 -0.000179461 -0.000176714 -0.000173961 -0.0001712 -0.000168434 -0.000165663 -0.000162887 -0.000160108 -0.000157325 -0.000154541 -0.000151755 -0.00014897 -0.000146185 -0.000143402 -0.000140622 -0.000137846 -0.000135075 -0.000132311 -0.000129554 -0.000126805 -0.000124066 -0.000121337 -0.000118619 -0.000115912 -0.000113217 -0.000110535 -0.000107867 -0.000105211 -0.00010257 -9.99418e-05 -9.73281e-05 -9.47286e-05 -9.21433e-05 -8.95723e-05 -8.70154e-05 -8.44728e-05 -8.19441e-05 -7.94293e-05 -7.6928e-05 -7.44401e-05 -7.1965e-05 -6.95026e-05 -6.70522e-05 -6.46136e-05 -6.21861e-05 -5.97693e-05 -5.73628e-05 -5.49658e-05 -5.25781e-05 -5.0199e-05 -4.78281e-05 -4.54648e-05 -4.31087e-05 -4.07593e-05 -3.84162e-05 -3.6079e-05 -3.37472e-05 -3.14205e-05 -2.90985e-05 -2.67809e-05 -2.44672e-05 -2.21573e-05 -1.98508e-05 -1.75474e-05 -1.52469e-05 -1.29489e-05 -1.06534e-05 -8.35993e-06 -6.06841e-06 -3.77861e-06 -1.49031e-06 7.96661e-07 3.08249e-06 5.36734e-06 7.65139e-06 9.93478e-06 1.22177e-05 1.45002e-05 1.67825e-05 
-0.000233564 -0.000230999 -0.000228426 -0.000225844 -0.000223254 -0.000220655 -0.000218047 -0.000215429 -0.000212803 -0.000210166 -0.00020752 -0.000204864 -0.000202198 -0.000199523 -0.000196837 -0.000194141 -0.000191434 -0.000188718 -0.000185993 -0.000183257 -0.000180512 -0.000177759 -0.000174996 -0.000172225 -0.000169447 -0.000166661 -0.000163869 -0.000161072 -0.000158269 -0.000155462 -0.000152653 -0.000149841 -0.000147029 -0.000144217 -0.000141407 -0.0001386 -0.000135796 -0.000132999 -0.000130208 -0.000127426 -0.000124652 -0.000121889 -0.000119138 -0.000116399 -0.000113673 -0.000110961 -0.000108264 -0.00010558 -0.000102912 -0.00010026 -9.76222e-05 -9.50003e-05 -9.2394e-05 -8.98034e-05 -8.72285e-05 -8.46691e-05 -8.21253e-05 -7.95969e-05 -7.70837e-05 -7.45852e-05 -7.21013e-05 -6.96314e-05 -6.7175e-05 -6.47317e-05 -6.23009e-05 -5.9882e-05 -5.74743e-05 -5.50773e-05 -5.26904e-05 -5.0313e-05 -4.79444e-05 -4.55841e-05 -4.32316e-05 -4.08862e-05 -3.85476e-05 -3.62152e-05 -3.38886e-05 -3.15673e-05 -2.92509e-05 -2.6939e-05 -2.46313e-05 -2.23275e-05 -2.00271e-05 -1.77299e-05 -1.54357e-05 -1.3144e-05 -1.08548e-05 -8.56773e-06 -6.28257e-06 -3.99912e-06 -1.71717e-06 5.63469e-07 2.84299e-06 5.12156e-06 7.39936e-06 9.67655e-06 1.19533e-05 1.42297e-05 1.65059e-05 1.87822e-05 
-0.000231969 -0.000229409 -0.000226841 -0.000224263 -0.000221677 -0.000219081 -0.000216475 -0.00021386 -0.000211234 -0.000208598 -0.000205951 -0.000203294 -0.000200625 -0.000197945 -0.000195254 -0.000192552 -0.000189839 -0.000187114 -0.000184378 -0.000181631 -0.000178874 -0.000176105 -0.000173327 -0.000170538 -0.000167741 -0.000164935 -0.00016212 -0.000159299 -0.000156471 -0.000153639 -0.000150801 -0.000147961 -0.000145119 -0.000142277 -0.000139436 -0.000136598 -0.000133764 -0.000130935 -0.000128115 -0.000125303 -0.000122502 -0.000119712 -0.000116936 -0.000114174 -0.000111427 -0.000108696 -0.000105982 -0.000103284 -0.000100602 -9.79381e-05 -9.52908e-05 -9.26606e-05 -9.00476e-05 -8.74517e-05 -8.48731e-05 -8.23117e-05 -7.97674e-05 -7.724e-05 -7.47294e-05 -7.2235e-05 -6.97565e-05 -6.72933e-05 -6.48447e-05 -6.24102e-05 -5.99889e-05 -5.75802e-05 -5.51834e-05 -5.27977e-05 -5.04223e-05 -4.80566e-05 -4.57e-05 -4.33516e-05 -4.10111e-05 -3.86776e-05 -3.63507e-05 -3.40299e-05 -3.17146e-05 -2.94045e-05 -2.7099e-05 -2.47979e-05 -2.25006e-05 -2.02069e-05 -1.79164e-05 -1.56288e-05 -1.33439e-05 -1.10614e-05 -8.78107e-06 -6.5026e-06 -4.22581e-06 -1.95049e-06 3.23557e-07 2.59652e-06 4.86858e-06 7.1399e-06 9.41066e-06 1.1681e-05 1.39511e-05 1.62211e-05 1.84911e-05 2.07613e-05 
-0.000230404 -0.00022785 -0.000225288 -0.000222716 -0.000220135 -0.000217544 -0.000214942 -0.00021233 -0.000209707 -0.000207073 -0.000204427 -0.000201769 -0.000199099 -0.000196417 -0.000193722 -0.000191015 -0.000188296 -0.000185563 -0.000182818 -0.00018006 -0.00017729 -0.000174507 -0.000171712 -0.000168906 -0.000166089 -0.000163261 -0.000160424 -0.000157577 -0.000154722 -0.000151861 -0.000148993 -0.000146122 -0.000143247 -0.000140371 -0.000137495 -0.000134621 -0.000131751 -0.000128888 -0.000126032 -0.000123186 -0.000120353 -0.000117533 -0.000114729 -0.000111941 -0.000109171 -0.00010642 -0.000103687 -0.000100974 -9.82793e-05 -9.56034e-05 -9.29463e-05 -9.03078e-05 -8.76879e-05 -8.50869e-05 -8.25048e-05 -7.99418e-05 -7.73978e-05 -7.48726e-05 -7.23659e-05 -6.98773e-05 -6.74061e-05 -6.49515e-05 -6.25128e-05 -6.00892e-05 -5.76797e-05 -5.52833e-05 -5.28993e-05 -5.05268e-05 -4.81648e-05 -4.58126e-05 -4.34694e-05 -4.11344e-05 -3.8807e-05 -3.64865e-05 -3.41723e-05 -3.18639e-05 -2.95608e-05 -2.72624e-05 -2.49684e-05 -2.26783e-05 -2.03918e-05 -1.81086e-05 -1.58282e-05 -1.35504e-05 -1.1275e-05 -9.0017e-06 -6.73022e-06 -4.46037e-06 -2.19193e-06 7.52918e-08 2.34149e-06 4.60683e-06 6.87151e-06 9.13567e-06 1.13995e-05 1.36631e-05 1.59266e-05 1.81903e-05 2.04542e-05 2.27184e-05 
-0.000228867 -0.000226322 -0.000223768 -0.000221204 -0.00021863 -0.000216045 -0.000213449 -0.000210842 -0.000208224 -0.000205593 -0.000202949 -0.000200293 -0.000197624 -0.000194941 -0.000192245 -0.000189534 -0.00018681 -0.000184071 -0.000181317 -0.000178549 -0.000175767 -0.000172971 -0.00017016 -0.000167336 -0.000164499 -0.000161649 -0.000158787 -0.000155914 -0.00015303 -0.000150138 -0.000147238 -0.000144331 -0.000141419 -0.000138505 -0.000135589 -0.000132675 -0.000129764 -0.000126859 -0.000123962 -0.000121077 -0.000118205 -0.00011535 -0.000112513 -0.000109696 -0.000106901 -0.000104127 -0.000101377 -9.86481e-05 -9.59407e-05 -9.32539e-05 -9.05872e-05 -8.79403e-05 -8.53135e-05 -8.27071e-05 -8.01217e-05 -7.75575e-05 -7.50147e-05 -7.24932e-05 -6.99925e-05 -6.75119e-05 -6.50505e-05 -6.26073e-05 -6.01813e-05 -5.77713e-05 -5.53762e-05 -5.29948e-05 -5.0626e-05 -4.82688e-05 -4.59222e-05 -4.35853e-05 -4.12571e-05 -3.89369e-05 -3.66239e-05 -3.43174e-05 -3.20169e-05 -2.97216e-05 -2.74312e-05 -2.51451e-05 -2.28629e-05 -2.05842e-05 -1.83087e-05 -1.6036e-05 -1.37657e-05 -1.14978e-05 -9.23181e-06 -6.96759e-06 -4.7049e-06 -2.44354e-06 -1.83318e-07 2.07596e-06 4.33446e-06 6.59236e-06 8.84981e-06 1.1107e-05 1.3364e-05 1.5621e-05 1.78782e-05 2.01357e-05 2.23936e-05 2.4652e-05 
-0.00022736 -0.000224825 -0.000222281 -0.000219726 -0.000217161 -0.000214585 -0.000211997 -0.000209397 -0.000206785 -0.00020416 -0.000201522 -0.000198869 -0.000196203 -0.000193522 -0.000190825 -0.000188113 -0.000185386 -0.000182642 -0.000179882 -0.000177106 -0.000174313 -0.000171504 -0.000168679 -0.000165838 -0.00016298 -0.000160108 -0.000157221 -0.00015432 -0.000151406 -0.000148481 -0.000145545 -0.000142599 -0.000139647 -0.00013669 -0.000133729 -0.000130768 -0.000127809 -0.000124855 -0.00012191 -0.000118977 -0.000116059 -0.00011316 -0.000110283 -0.000107431 -0.000104607 -0.000101811 -9.9043e-05 -9.63013e-05 -9.35837e-05 -9.08877e-05 -8.82121e-05 -8.55564e-05 -8.29216e-05 -8.03089e-05 -7.77197e-05 -7.51549e-05 -7.2615e-05 -7.00995e-05 -6.76077e-05 -6.51386e-05 -6.26908e-05 -6.02628e-05 -5.78531e-05 -5.54603e-05 -5.30829e-05 -5.07194e-05 -4.83686e-05 -4.60293e-05 -4.37002e-05 -4.13804e-05 -3.90689e-05 -3.67648e-05 -3.44674e-05 -3.21758e-05 -2.98896e-05 -2.76081e-05 -2.53307e-05 -2.30572e-05 -2.07869e-05 -1.85197e-05 -1.6255e-05 -1.39927e-05 -1.17325e-05 -9.47417e-06 -7.2174e-06 -4.96203e-06 -2.70786e-06 -4.54709e-07 1.79759e-06 4.04921e-06 6.30031e-06 8.55104e-06 1.08015e-05 1.3052e-05 1.53025e-05 1.75532e-05 1.98042e-05 2.20558e-05 2.43079e-05 2.65608e-05 
-0.000225881 -0.000223358 -0.000220826 -0.000218283 -0.000215729 -0.000213164 -0.000210586 -0.000207996 -0.000205393 -0.000202777 -0.000200146 -0.0001975 -0.000194839 -0.000192162 -0.000189468 -0.000186757 -0.000184029 -0.000181283 -0.000178519 -0.000175737 -0.000172936 -0.000170116 -0.000167277 -0.000164419 -0.000161543 -0.000158649 -0.000155737 -0.000152808 -0.000149862 -0.000146902 -0.000143928 -0.000140941 -0.000137945 -0.000134939 -0.000131928 -0.000128913 -0.000125898 -0.000122886 -0.000119882 -0.000116889 -0.000113913 -0.000110958 -0.000108031 -0.000105135 -0.000102275 -9.94545e-05 -9.6672e-05 -9.39237e-05 -9.1203e-05 -8.85029e-05 -8.58193e-05 -8.31523e-05 -8.05057e-05 -7.78839e-05 -7.52903e-05 -7.27265e-05 -7.01927e-05 -6.76879e-05 -6.52104e-05 -6.27583e-05 -6.03295e-05 -5.79218e-05 -5.55334e-05 -5.31621e-05 -5.08063e-05 -4.84642e-05 -4.61344e-05 -4.38155e-05 -4.15062e-05 -3.92053e-05 -3.6912e-05 -3.46252e-05 -3.23441e-05 -3.00681e-05 -2.77966e-05 -2.5529e-05 -2.32649e-05 -2.10038e-05 -1.87453e-05 -1.64892e-05 -1.42351e-05 -1.19829e-05 -9.73227e-06 -7.48303e-06 -5.23499e-06 -2.98799e-06 -7.41862e-07 1.50355e-06 3.74838e-06 5.99278e-06 8.23689e-06 1.04809e-05 1.27248e-05 1.49689e-05 1.72132e-05 1.94579e-05 2.17031e-05 2.39489e-05 2.61956e-05 2.84432e-05 