# vtk DataFile Version 3.0
vtk formatted output of (cx,cy,cz,value) points
ASCII
DATASET UNSTRUCTURED_GRID
POINTS 230 float
-31.1350079999999991 138.393270000000001 -0.140149999999999997
-31.1299770000000002 138.495566999999994 -0.214599999999999985
-31.1310639999999985 138.489781999999991 -0.219710000000000016
-31.1305019999999999 138.483643000000001 -0.214219999999999994
-31.1309129999999996 138.477876000000009 -0.200039999999999996
-31.131253000000001 138.471303000000006 -0.191659999999999997
-31.1315109999999997 138.465172999999993 -0.185650000000000009
-31.1317689999999985 138.459516000000008 -0.181629999999999986
-31.1319930000000014 138.453973999999988 -0.176369999999999999
-31.1334920000000004 138.399444999999986 -0.142309999999999992
-31.1337119999999992 138.405877000000004 -0.145430000000000004
-31.1337699999999984 138.411011999999999 -0.148480000000000001
-31.1336690000000011 138.417652000000004 -0.152240000000000014
-31.1335300000000004 138.423327999999998 -0.156289999999999984
-31.1331820000000015 138.428914999999989 -0.159270000000000023
-31.1329269999999987 138.434656999999987 -0.163229999999999986
-31.1327229999999986 138.440260999999992 -0.166090000000000015
-31.1325010000000013 138.444985000000003 -0.169870000000000021
-31.1324809999999985 138.447649000000013 -0.171979999999999994
-31.1915440000000004 138.278673999999995 -0.0869499999999999995
-31.1344689999999993 138.387571000000008 -0.136949999999999988
-31.1345570000000009 138.382137999999998 -0.134239999999999998
-31.1345160000000014 138.377924000000007 -0.132370000000000015
-31.1341810000000017 138.371653000000009 -0.129229999999999984
-31.1361810000000006 138.36581000000001 -0.126579999999999998
-31.1380580000000009 138.361040000000003 -0.124689999999999995
-31.1397860000000009 138.355550999999991 -0.122440000000000007
-31.1439939999999993 138.351030000000009 -0.119650000000000006
-31.1479029999999995 138.347262000000001 -0.11895
-31.1515130000000013 138.342159000000009 -0.115680000000000005
-31.1530279999999991 138.337323999999995 -0.113209999999999991
-31.1557190000000013 138.332707999999997 -0.110820000000000002
-31.1569670000000016 138.329401999999988 -0.109409999999999993
-31.1599620000000002 138.326864 -0.109120000000000009
-31.1644819999999996 138.321733999999992 -0.108260000000000009
-31.1691350000000007 138.319117000000006 -0.107249999999999998
-31.1725390000000004 138.314973000000009 -0.104669999999999999
-31.1764070000000011 138.311905999999993 -0.103770000000000001
-31.1781770000000016 138.306841999999989 -0.0997500000000000053
-31.1802029999999988 138.301570999999996 -0.0982699999999999962
-31.1827509999999997 138.297041000000007 -0.0964000000000000135
-31.1859339999999996 138.291044999999997 -0.0949099999999999944
-31.1888140000000007 138.286074000000013 -0.0920600000000000029
-31.1916110000000018 138.281850999999989 -0.0895500000000000046
-31.2306589999999993 138.180939999999993 -0.0487000000000000072
-31.2270280000000007 138.186043000000012 -0.0501000000000000056
-31.2266909999999989 138.192035000000004 -0.0526399999999999993
-31.2271870000000007 138.198263999999995 -0.0535699999999999996
-31.2276890000000016 138.204356999999987 -0.0557100000000000026
-31.2274209999999997 138.210651000000013 -0.0580900000000000027
-31.2311219999999992 138.220416999999998 -0.057780000000000005
-31.2299949999999988 138.215413000000012 -0.0597099999999999992
-31.2307319999999997 138.226147999999995 -0.0599599999999999994
-31.2262340000000016 138.231243000000006 -0.0603199999999999986
-31.2223609999999994 138.235690000000005 -0.0631599999999999939
-31.2226520000000001 138.237875000000003 -0.0638800000000000062
-31.219380000000001 138.241715999999997 -0.0664899999999999936
-31.2186449999999986 138.243205999999986 -0.0690100000000000019
-31.2178189999999987 138.245077000000009 -0.0666100000000000025
-31.2169640000000008 138.246802000000002 -0.0667099999999999915
-31.2165339999999993 138.248221000000001 -0.0669300000000000034
-31.2163439999999994 138.249873000000008 -0.067900000000000002
-31.2160849999999996 138.251665000000003 -0.0674000000000000016
-31.2157540000000004 138.253080000000011 -0.0687099999999999933
-31.2147849999999991 138.254556000000008 -0.0707699999999999996
-31.2140710000000006 138.255763000000002 -0.0701600000000000001
-31.2125519999999987 138.256844999999998 -0.0718499999999999972
-31.2112639999999999 138.257774000000012 -0.0729599999999999971
-31.2097329999999999 138.258249000000006 -0.0723600000000000076
-31.2080249999999992 138.25810899999999 -0.0723400000000000015
-31.206154999999999 138.257963999999987 -0.0738400000000000029
-31.2014969999999998 138.259010999999987 -0.0770900000000000057
-31.2002680000000012 138.260168999999991 -0.0815600000000000075
-31.1992820000000002 138.261278000000004 -0.0829500000000000098
-31.1983350000000002 138.262974000000014 -0.0827099999999999919
-31.1965320000000013 138.262563999999998 -0.0831500000000000017
-31.194464 138.263305000000003 -0.0798900000000000027
-31.1947219999999987 138.264818999999989 -0.0821700000000000069
-31.1951280000000004 138.26650699999999 -0.0820999999999999924
-31.1954379999999993 138.267934999999994 -0.0819800000000000112
-31.1957769999999996 138.269498999999996 -0.0823900000000000049
-31.1956360000000004 138.271318000000008 -0.0837699999999999972
-31.1952420000000004 138.272725000000008 -0.0836900000000000005
-31.1947040000000015 138.274188000000009 -0.0838300000000000017
-31.1939530000000005 138.276192000000009 -0.0852099999999999941
-31.1927489999999992 138.277433000000002 -0.0857300000000000006
-31.1915440000000004 138.278673999999995 -0.0869499999999999995
-31.2322810000000004 138.18172100000001 -0.0490300000000000041
-31.2360040000000012 138.179196999999988 -0.0483100000000000057
-31.2372049999999994 138.173525000000012 -0.0480600000000000055
-31.2367269999999984 138.168586000000005 -0.0472500000000000003
-31.2358189999999993 138.16342800000001 -0.0464800000000000005
-31.2351489999999998 138.158389999999997 -0.0457899999999999974
-31.2365269999999988 138.153415999999993 -0.0457400000000000029
-31.2384179999999994 138.148038000000014 -0.0444200000000000012
-31.2396850000000015 138.142941000000008 -0.0422800000000000051
-31.238268999999999 138.138071999999994 -0.0392899999999999985
-31.2362180000000009 138.132634999999993 -0.039899999999999998
-31.236497 138.127368999999987 -0.0389600000000000016
-31.2374930000000006 138.122300999999993 -0.0379299999999999984
-31.2391080000000017 138.11752899999999 -0.042380000000000001
-31.2398099999999985 138.112229000000013 -0.0384900000000000034
-31.2395659999999999 138.106180999999992 -0.0334200000000000053
-31.2381160000000015 138.10185899999999 -0.0406000000000000041
-31.2381279999999997 138.100430999999986 -0.0333400000000000016
-31.2380229999999983 138.096562000000006 -0.0326700000000000046
-31.2924849999999992 138.182596999999987 -0.0477599999999999969
-31.293448999999999 138.188301999999993 -0.0498400000000000024
-31.2942959999999992 138.193664000000012 -0.0518400000000000041
-31.2956830000000004 138.199346999999989 -0.053510000000000002
-31.2969210000000011 138.204403000000013 -0.0537899999999999975
-31.300179 138.208266000000009 -0.0561899999999999969
-31.3026599999999995 138.213317999999987 -0.0579099999999999962
-31.3039489999999994 138.218289999999996 -0.0595499999999999988
-31.3026400000000002 138.223622000000006 -0.0606399999999999995
-31.303839 138.228586000000007 -0.0626199999999999951
-31.3074699999999986 138.232639000000006 -0.0630600000000000049
-31.3079989999999988 138.234178000000014 -0.0631700000000000039
-31.3081980000000009 138.235464000000007 -0.0635499999999999954
-31.3081999999999994 138.236797999999993 -0.0636800000000000005
-31.3082290000000008 138.238540999999998 -0.0645999999999999908
-31.3083619999999989 138.240143999999987 -0.0648199999999999887
-31.3082799999999999 138.241762999999992 -0.0651400000000000035
-31.3084179999999996 138.243177000000003 -0.0660000000000000031
-31.3084290000000003 138.244520999999992 -0.0663499999999999923
-31.3086570000000002 138.24588 -0.0669500000000000095
-31.3083029999999987 138.247046000000012 -0.0673699999999999993
-31.3078959999999995 138.248244 -0.0676400000000000057
-31.3073920000000001 138.249561999999997 -0.0685499999999999998
-31.3069489999999995 138.250772000000012 -0.0690500000000000003
-31.3066989999999983 138.252124000000009 -0.0689499999999999974
-31.3063569999999984 138.253424999999993 -0.0692900000000000044
-31.3059420000000017 138.254707999999994 -0.0698600000000000054
-31.3055960000000013 138.255831999999998 -0.0701299999999999979
-31.3052439999999983 138.257070999999996 -0.0710999999999999965
-31.3049180000000007 138.262479000000013 -0.0719199999999999978
-31.3050430000000013 138.268367000000012 -0.0736200000000000049
-31.3079239999999999 138.273629999999997 -0.0754999999999999977
-31.2924849999999992 138.182596999999987 -0.0477599999999999969
-31.2426659999999998 138.402292999999986 -0.117050000000000001
-31.3079239999999999 138.273629999999997 -0.0754999999999999977
-31.2990840000000006 138.27693099999999 -0.0765699999999999992
-31.2901990000000012 138.279821999999996 -0.0778200000000000003
-31.2811909999999997 138.27985000000001 -0.0791700000000000043
-31.2722960000000008 138.278016000000008 -0.0799399999999999972
-31.2724720000000005 138.279502000000008 -0.0796100000000000002
-31.2688379999999988 138.279910999999998 -0.079260000000000011
-31.269171 138.284572999999995 -0.0799599999999999894
-31.2699029999999993 138.289781000000005 -0.0820100000000000134
-31.2706389999999992 138.295166999999992 -0.0833300000000000013
-31.2711770000000016 138.299318999999997 -0.0842800000000000077
-31.2720179999999992 138.305459000000013 -0.0860400000000000054
-31.2726970000000009 138.310280000000006 -0.088919999999999999
-31.2733300000000014 138.315552999999994 -0.0883899999999999963
-31.2739109999999982 138.320922999999993 -0.0891900000000000054
-31.274246999999999 138.324925000000007 -0.0912099999999999994
-31.2743089999999988 138.33051900000001 -0.093640000000000001
-31.275307999999999 138.337326999999988 -0.094079999999999997
-31.2766519999999986 138.342161000000004 -0.0962000000000000077
-31.2753440000000005 138.347352999999998 -0.0976700000000000068
-31.2754709999999996 138.352201000000008 -0.0993400000000000116
-31.2738949999999996 138.35582500000001 -0.100700000000000012
-31.2635129999999997 138.35482300000001 -0.0999599999999999933
-31.2606980000000014 138.357411000000013 -0.100599999999999995
-31.2581570000000006 138.361943999999994 -0.10202
-31.2555939999999985 138.366214000000014 -0.104020000000000001
-31.2547400000000017 138.371203000000008 -0.105120000000000005
-31.2548320000000004 138.376124000000004 -0.105340000000000003
-31.2542030000000004 138.381558000000012 -0.107219999999999996
-31.254836000000001 138.386978999999997 -0.109870000000000009
-31.2517309999999995 138.389478999999994 -0.11012000000000001
-31.2471710000000016 138.392731999999995 -0.113150000000000014
-31.2444869999999995 138.396951999999999 -0.113870000000000013
-31.2426659999999998 138.402292999999986 -0.117050000000000001
-31.2426659999999998 138.402292999999986 -0.117050000000000001
-31.2518509999999985 138.404309000000012 -0.113510000000000014
-31.2608110000000003 138.405428000000001 -0.114180000000000004
-31.2700180000000003 138.406247000000008 -0.116980000000000001
-31.279160000000001 138.407036000000005 -0.122440000000000007
-31.288214 138.40790100000001 -0.124829999999999997
-31.2968429999999991 138.408704999999998 -0.12859000000000001
-31.3064639999999983 138.409492 -0.131440000000000001
-31.3069589999999991 138.409919000000002 -0.131699999999999984
-31.3091940000000015 138.41564600000001 -0.133879999999999999
-31.3106639999999992 138.421456000000006 -0.136430000000000023
-31.3120450000000012 138.426911999999987 -0.139310000000000017
-31.3126660000000001 138.434491000000008 -0.142660000000000009
-31.2975069999999995 138.430048999999997 -0.132800000000000001
-31.2972409999999996 138.432975999999996 -0.1376
-31.3060079999999985 138.433945999999992 -0.141820000000000002
-31.3142059999999987 138.439838000000009 -0.146520000000000011
-31.3162149999999997 138.44516200000001 -0.150120000000000003
-31.3184269999999998 138.451163000000008 -0.153789999999999982
-31.3195809999999994 138.456583999999992 -0.157210000000000016
-31.3207069999999987 138.462468999999999 -0.159810000000000008
-31.322220999999999 138.467881000000006 -0.162470000000000003
-31.3238449999999986 138.473846000000009 -0.167210000000000025
-31.3252440000000014 138.479409000000004 -0.170590000000000019
-31.3267400000000009 138.484884999999991 -0.174389999999999989
-31.3283810000000003 138.490829999999988 -0.178570000000000007
-31.3300330000000002 138.49596600000001 -0.182919999999999999
-31.3313549999999985 138.500911000000002 -0.184700000000000003
-31.332574000000001 138.506520999999992 -0.202220000000000011
-31.3340479999999992 138.51186100000001 -0.22236000000000003
-31.3355190000000015 138.517002999999988 -0.217990000000000017
-31.3359670000000001 138.518734999999992 -0.218830000000000024
-31.2426659999999998 138.402292999999986 -0.117050000000000001
-31.1350079999999991 138.393270000000001 -0.140149999999999997
-31.1443319999999986 138.394069999999999 -0.140600000000000003
-31.153846999999999 138.394980000000004 -0.140449999999999992
-31.1629089999999991 138.395819999999986 -0.139330000000000009
-31.1719000000000008 138.396659999999997 -0.137259999999999993
-31.1806020000000004 138.397490000000005 -0.135069999999999996
-31.1894020000000012 138.398290000000003 -0.133539999999999992
-31.1983110000000003 138.399110000000007 -0.131270000000000026
-31.2093260000000008 138.40016 -0.127540000000000014
-31.2190660000000015 138.401080000000007 -0.124960000000000002
-31.2292850000000008 138.402019999999993 -0.121590000000000004
-31.2385650000000012 138.402899999999988 -0.118209999999999996
-31.2426659999999998 138.402289999999994 -0.117209999999999995
-31.1350079999999991 138.393270000000001 -0.140149999999999997
-31.2306589999999993 138.180939999999993 -0.0487000000000000072
-31.2924849999999992 138.182596999999987 -0.0472999999999999948
-31.2832529999999984 138.183544000000012 -0.0489699999999999996
-31.2735990000000008 138.184514000000007 -0.0481499999999999984
-31.2638859999999994 138.185305999999997 -0.0498999999999999999
-31.254956 138.182307000000009 -0.0499600000000000044
-31.2453809999999983 138.183242000000007 -0.0495000000000000023
-31.2361779999999989 138.182183000000009 -0.0500099999999999989
-31.2306589999999993 138.180939999999993 -0.0487000000000000072
CELLS 230 460
1 0
1 1
1 2
1 3
1 4
1 5
1 6
1 7
1 8
1 9
1 10
1 11
1 12
1 13
1 14
1 15
1 16
1 17
1 18
1 19
1 20
1 21
1 22
1 23
1 24
1 25
1 26
1 27
1 28
1 29
1 30
1 31
1 32
1 33
1 34
1 35
1 36
1 37
1 38
1 39
1 40
1 41
1 42
1 43
1 44
1 45
1 46
1 47
1 48
1 49
1 50
1 51
1 52
1 53
1 54
1 55
1 56
1 57
1 58
1 59
1 60
1 61
1 62
1 63
1 64
1 65
1 66
1 67
1 68
1 69
1 70
1 71
1 72
1 73
1 74
1 75
1 76
1 77
1 78
1 79
1 80
1 81
1 82
1 83
1 84
1 85
1 86
1 87
1 88
1 89
1 90
1 91
1 92
1 93
1 94
1 95
1 96
1 97
1 98
1 99
1 100
1 101
1 102
1 103
1 104
1 105
1 106
1 107
1 108
1 109
1 110
1 111
1 112
1 113
1 114
1 115
1 116
1 117
1 118
1 119
1 120
1 121
1 122
1 123
1 124
1 125
1 126
1 127
1 128
1 129
1 130
1 131
1 132
1 133
1 134
1 135
1 136
1 137
1 138
1 139
1 140
1 141
1 142
1 143
1 144
1 145
1 146
1 147
1 148
1 149
1 150
1 151
1 152
1 153
1 154
1 155
1 156
1 157
1 158
1 159
1 160
1 161
1 162
1 163
1 164
1 165
1 166
1 167
1 168
1 169
1 170
1 171
1 172
1 173
1 174
1 175
1 176
1 177
1 178
1 179
1 180
1 181
1 182
1 183
1 184
1 185
1 186
1 187
1 188
1 189
1 190
1 191
1 192
1 193
1 194
1 195
1 196
1 197
1 198
1 199
1 200
1 201
1 202
1 203
1 204
1 205
1 206
1 207
1 208
1 209
1 210
1 211
1 212
1 213
1 214
1 215
1 216
1 217
1 218
1 219
1 220
1 221
1 222
1 223
1 224
1 225
1 226
1 227
1 228
1 229
CELL_TYPES 230
1
1
1
1
1
1
1
1
1
1
1
1
1
1
1
1
1
1
1
1
1
1
1
1
1
1
1
1
1
1
1
1
1
1
1
1
1
1
1
1
1
1
1
1
1
1
1
1
1
1
1
1
1
1
1
1
1
1
1
1
1
1
1
1
1
1
1
1
1
1
1
1
1
1
1
1
1
1
1
1
1
1
1
1
1
1
1
1
1
1
1
1
1
1
1
1
1
1
1
1
1
1
1
1
1
1
1
1
1
1
1
1
1
1
1
1
1
1
1
1
1
1
1
1
1
1
1
1
1
1
1
1
1
1
1
1
1
1
1
1
1
1
1
1
1
1
1
1
1
1
1
1
1
1
1
1
1
1
1
1
1
1
1
1
1
1
1
1
1
1
1
1
1
1
1
1
1
1
1
1
1
1
1
1
1
1
1
1
1
1
1
1
1
1
1
1
1
1
1
1
1
1
1
1
1
1
1
1
1
1
1
1
1
1
1
1
1
1
1
1
1
1
1
1
1
1
1
1
1
1
POINT_DATA 230
SCALARS scalars float 1
LOOKUP_TABLE default
-3.21567948401624466e-05
6.16573474150684299e-05
5.21362014957848911e-05
2.63904394566075748e-05
-2.204461435641983e-07
-1.15699603174887076e-05
-1.61937595414142325e-05
-2.03045979958385711e-05
-2.3626482803317569e-05
-3.86975097313928631e-05
-4.60385040097653555e-05
-4.82876219466442445e-05
-4.75135379205267566e-05
-4.31388426206029776e-05
-3.75010082586367001e-05
-3.28105416183513843e-05
-2.94237932309621088e-05
-2.91136473764177085e-05
-2.62487385438803862e-05
-3.08968098312771349e-06
-2.80180573249968427e-05
-2.36171208537669093e-05
-2.01613452214669041e-05
-1.79677314701054056e-05
-2.13774978269144528e-05
-2.60945796466147486e-05
-2.68004473367644742e-05
-1.42512529832275025e-05
-7.15361409645592808e-06
1.02950520510807397e-06
6.7610594542036437e-06
1.58093037133843681e-05
2.17386131487460374e-05
2.42727926782978251e-05
2.75661323438597074e-05
2.67578211745891171e-05
2.78613799620270073e-05
2.75969151448407648e-05
2.4776090050549992e-05
2.49448058416271482e-05
1.77288858542920785e-05
1.04519016777481849e-05
2.84307810127048643e-06
-3.43089216876840035e-06
-5.95181041633674609e-05
-5.84572015343652658e-05
-6.1992874706970401e-05
-6.65614362939623993e-05
-6.71555687390405396e-05
-6.78611092063554044e-05
-7.23348174969311406e-05
-7.38371926322872149e-05
-7.84358937357050622e-05
-7.90256001960676607e-05
-7.99396486880604696e-05
-8.05569383257534878e-05
-8.00046967792205591e-05
-8.12610346480759869e-05
-8.07187705099694216e-05
-7.99375142776169152e-05
-7.89606152783253756e-05
-7.89011559888410887e-05
-7.85769273645629368e-05
-7.79360232811059323e-05
-7.80095415622988897e-05
-7.63373013398071224e-05
-7.46980140748373331e-05
-7.24841696058405678e-05
-7.05381931088810938e-05
-6.9310084636936713e-05
-6.72635323223084216e-05
-6.11441412832212293e-05
-5.84709247271969571e-05
-5.36484851815127354e-05
-4.50623667822605252e-05
-4.1854000672058027e-05
-3.49089336019632059e-05
-3.0832243302536652e-05
-2.61948477660330065e-05
-2.27789310370634626e-05
-1.95440821053855207e-05
-1.50177128479184793e-05
-1.17596570790835743e-05
-1.10537575012560613e-05
-9.43915217064952362e-06
-6.35301543428655111e-06
-3.08968098312771349e-06
-6.07683422404821274e-05
-6.28661248871207771e-05
-6.6119719891260666e-05
-6.63295461025375886e-05
-6.47162910832222587e-05
-6.38363788198670801e-05
-6.52384751767625087e-05
-6.75487477205060467e-05
-6.89715856243893421e-05
-6.91165757570489237e-05
-7.00742277829253819e-05
-7.1346043156584227e-05
-7.36691598618353737e-05
-7.65127460891631224e-05
-7.6724042191455915e-05
-7.59977879833533833e-05
-7.96181478721919445e-05
-7.75031886029642532e-05
-8.18365092819715824e-05
-0.000119412516903690587
-0.000120795560000716844
-0.000121942104125675549
-0.000122170554325701502
-0.00012441272413566876
-0.000130506232337315037
-0.000137513844599616533
-0.000141222857741296159
-0.000138229772026409972
-0.000138498058670268216
-0.000141345032810620509
-0.000141153025576376448
-0.000141065436872923259
-0.000141011420377652172
-0.000138925672738269364
-0.000139199758411274218
-0.000138304769214278247
-0.000136524425353193811
-0.000135645038717425147
-0.000133248122504043946
-0.000131238339926572695
-0.000129280996981150477
-0.00012648741756983667
-0.000124648954602081183
-0.000122045075402023751
-0.00011900223236371541
-0.000115448591030883424
-0.000112440185550676401
-0.000108950551004467631
-9.89767174910218727e-05
-8.93342381970273241e-05
-8.83482388211501678e-05
-0.000119412516903690587
-8.97384250092159044e-05
-8.83482388211501678e-05
-8.35546642014912451e-05
-7.49722149414839227e-05
-7.03956842106132622e-05
-6.55513760435269343e-05
-6.45413298203740871e-05
-6.15168424392010794e-05
-5.51073193699448368e-05
-5.40630740946892741e-05
-5.80574507980587975e-05
-5.95206697479331919e-05
-6.3134043548658368e-05
-6.2215307700631901e-05
-6.18648326293537725e-05
-5.745748672795578e-05
-5.50548606792963926e-05
-5.5326418522895409e-05
-5.89620128954760101e-05
-6.79707682588678196e-05
-7.86318081545368347e-05
-8.71498673200466086e-05
-8.62124055891612628e-05
-7.49464698921781567e-05
-7.59321246490617606e-05
-7.48037355664384426e-05
-6.91173515019151896e-05
-6.80701099235838704e-05
-7.041123894729507e-05
-7.73105689120135174e-05
-8.49070487203283956e-05
-8.43275646026909694e-05
-8.44161578860271684e-05
-8.60501300236859686e-05
-8.97384250092159044e-05
-8.97384250092159044e-05
-9.88579137650064696e-05
-0.000100120156250816631
-0.000100193300868001731
-0.000104385189743364545
-0.000109944325594128783
-0.000111870005747337174
-0.000106481732083694134
-0.000103267500713753025
-9.84735438634846744e-05
-9.15385152407742844e-05
-8.68832465211911574e-05
-8.10942179810380116e-05
-0.000100524292459880507
-8.90726863850560416e-05
-8.49056818344562196e-05
-7.94395450613605172e-05
-7.82723683450769862e-05
-8.0330457289153306e-05
-8.4431430269444604e-05
-9.05223360439710227e-05
-9.56065599468255392e-05
-9.8189139288932701e-05
-0.000101265421748070183
-0.000104293707746402973
-0.00011099116923168152
-0.000116163223079703709
-0.000114123946939553915
-9.96522893922407082e-05
-7.90335364649061897e-05
-5.92067257420696733e-05
-4.95145271539202477e-05
-8.97384250092159044e-05
-3.21567948401624466e-05
-4.52272897270054137e-05
-5.60316167785567009e-05
-5.88822341645466496e-05
-5.86452554949489738e-05
-5.88141708291553696e-05
-6.20648670321775745e-05
-6.59590239175114005e-05
-7.04112222494070704e-05
-7.50829704679310296e-05
-7.9893132103968866e-05
-8.52723058378220065e-05
-8.94238150189240004e-05
-3.21567948401624466e-05
-5.95181041633674609e-05
-0.000120317020625779913
-0.00011353138808007931
-0.000105704863144076019
-9.44789967880714211e-05
-8.0404980757665549e-05
-7.18378768713081998e-05
-6.46627687316276282e-05
-5.95181041633674609e-05

